# vtk DataFile Version 3.0
vtk output
ASCII
DATASET POLYDATA
POINTS 341 float
0 0 0
0 1 0
0 2 0
0 3 0
0 4 0
0 5 0
0 6 0
0 7 0
0 8 0
0 9 0
0 10 0
1 0 0
1 1 0
1 2 0
1 3 0
1 4 0
1 5 0
1 6 0
1 7 0
1 8 0
1 9 0
1 10 0
2 0 0
2 1 0
2 2 0
2 3 0
2 4 0
2 5 0
2 6 0
2 7 0
2 8 0
2 9 0
2 10 0
3 0 0
3 1 0
3 2 0
3 3 0
3 4 0
3 5 0
3 6 0
3 7 0
3 8 0
3 9 0
3 10 0
4 0 0
4 1 0
4 2 0
4 3 0
4 4 0
4 5 0
4 6 0
4 7 0
4 8 0
4 9 0
4 10 0
5 0 0
5 1 0
5 2 0
5 3 0
5 4 0
5 5 0
5 6 0
5 7 0
5 8 0
5 9 0
5 10 0
6 0 0
6 1 0
6 2 0
6 3 0
6 4 0
6 5 0
6 6 0
6 7 0
6 8 0
6 9 0
6 10 0
7 0 0
7 1 0
7 2 0
7 3 0
7 4 0
7 5 0
7 6 0
7 7 0
7 8 0
7 9 0
7 10 0
8 0 0
8 1 0
8 2 0
8 3 0
8 4 0
8 5 0
8 6 0
8 7 0
8 8 0
8 9 0
8 10 0
9 0 0
9 1 0
9 2 0
9 3 0
9 4 0
9 5 0
9 6 0
9 7 0
9 8 0
9 9 0
9 10 0
10 0 0
10 1 0
10 2 0
10 3 0
10 4 0
10 5 0
10 6 0
10 7 0
10 8 0
10 9 0
10 10 0
11 0 0
11 1 0
11 2 0
11 3 0
11 4 0
11 5 0
11 6 0
11 7 0
11 8 0
11 9 0
11 10 0
12 0 0
12 1 0
12 2 0
12 3 0
12 4 0
12 5 0
12 6 0
12 7 0
12 8 0
12 9 0
12 10 0
13 0 0
13 1 0
13 2 0
13 3 0
13 4 0
13 5 0
13 6 0
13 7 0
13 8 0
13 9 0
13 10 0
14 0 0
14 1 0
14 2 0
14 3 0
14 4 0
14 5 0
14 6 0
14 7 0
14 8 0
14 9 0
14 10 0
15 0 0
15 1 0
15 2 0
15 3 0
15 4 0
15 5 0
15 6 0
15 7 0
15 8 0
15 9 0
15 10 0
16 0 0
16 1 0
16 2 0
16 3 0
16 4 0
16 5 0
16 6 0
16 7 0
16 8 0
16 9 0
16 10 0
17 0 0
17 1 0
17 2 0
17 3 0
17 4 0
17 5 0
17 6 0
17 7 0
17 8 0
17 9 0
17 10 0
18 0 0
18 1 0
18 2 0
18 3 0
18 4 0
18 5 0
18 6 0
18 7 0
18 8 0
18 9 0
18 10 0
19 0 0
19 1 0
19 2 0
19 3 0
19 4 0
19 5 0
19 6 0
19 7 0
19 8 0
19 9 0
19 10 0
20 0 0
20 1 0
20 2 0
20 3 0
20 4 0
20 5 0
20 6 0
20 7 0
20 8 0
20 9 0
20 10 0
21 0 0
21 1 0
21 2 0
21 3 0
21 4 0
21 5 0
21 6 0
21 7 0
21 8 0
21 9 0
21 10 0
22 0 0
22 1 0
22 2 0
22 3 0
22 4 0
22 5 0
22 6 0
22 7 0
22 8 0
22 9 0
22 10 0
23 0 0
23 1 0
23 2 0
23 3 0
23 4 0
23 5 0
23 6 0
23 7 0
23 8 0
23 9 0
23 10 0
24 0 0
24 1 0
24 2 0
24 3 0
24 4 0
24 5 0
24 6 0
24 7 0
24 8 0
24 9 0
24 10 0
25 0 0
25 1 0
25 2 0
25 3 0
25 4 0
25 5 0
25 6 0
25 7 0
25 8 0
25 9 0
25 10 0
26 0 0
26 1 0
26 2 0
26 3 0
26 4 0
26 5 0
26 6 0
26 7 0
26 8 0
26 9 0
26 10 0
27 0 0
27 1 0
27 2 0
27 3 0
27 4 0
27 5 0
27 6 0
27 7 0
27 8 0
27 9 0
27 10 0
28 0 0
28 1 0
28 2 0
28 3 0
28 4 0
28 5 0
28 6 0
28 7 0
28 8 0
28 9 0
28 10 0
29 0 0
29 1 0
29 2 0
29 3 0
29 4 0
29 5 0
29 6 0
29 7 0
29 8 0
29 9 0
29 10 0
30 0 0
30 1 0
30 2 0
30 3 0
30 4 0
30 5 0
30 6 0
30 7 0
30 8 0
30 9 0
30 10 0
POLYGONS 300 1500
4 0 1 12 11
4 1 2 13 12
4 2 3 14 13
4 3 4 15 14
4 4 5 16 15
4 5 6 17 16
4 6 7 18 17
4 7 8 19 18
4 8 9 20 19
4 9 10 21 20
4 11 12 23 22
4 12 13 24 23
4 13 14 25 24
4 14 15 26 25
4 15 16 27 26
4 16 17 28 27
4 17 18 29 28
4 18 19 30 29
4 19 20 31 30
4 20 21 32 31
4 22 23 34 33
4 23 24 35 34
4 24 25 36 35
4 25 26 37 36
4 26 27 38 37
4 27 28 39 38
4 28 29 40 39
4 29 30 41 40
4 30 31 42 41
4 31 32 43 42
4 33 34 45 44
4 34 35 46 45
4 35 36 47 46
4 36 37 48 47
4 37 38 49 48
4 38 39 50 49
4 39 40 51 50
4 40 41 52 51
4 41 42 53 52
4 42 43 54 53
4 44 45 56 55
4 45 46 57 56
4 46 47 58 57
4 47 48 59 58
4 48 49 60 59
4 49 50 61 60
4 50 51 62 61
4 51 52 63 62
4 52 53 64 63
4 53 54 65 64
4 55 56 67 66
4 56 57 68 67
4 57 58 69 68
4 58 59 70 69
4 59 60 71 70
4 60 61 72 71
4 61 62 73 72
4 62 63 74 73
4 63 64 75 74
4 64 65 76 75
4 66 67 78 77
4 67 68 79 78
4 68 69 80 79
4 69 70 81 80
4 70 71 82 81
4 71 72 83 82
4 72 73 84 83
4 73 74 85 84
4 74 75 86 85
4 75 76 87 86
4 77 78 89 88
4 78 79 90 89
4 79 80 91 90
4 80 81 92 91
4 81 82 93 92
4 82 83 94 93
4 83 84 95 94
4 84 85 96 95
4 85 86 97 96
4 86 87 98 97
4 88 89 100 99
4 89 90 101 100
4 90 91 102 101
4 91 92 103 102
4 92 93 104 103
4 93 94 105 104
4 94 95 106 105
4 95 96 107 106
4 96 97 108 107
4 97 98 109 108
4 99 100 111 110
4 100 101 112 111
4 101 102 113 112
4 102 103 114 113
4 103 104 115 114
4 104 105 116 115
4 105 106 117 116
4 106 107 118 117
4 107 108 119 118
4 108 109 120 119
4 110 111 122 121
4 111 112 123 122
4 112 113 124 123
4 113 114 125 124
4 114 115 126 125
4 115 116 127 126
4 116 117 128 127
4 117 118 129 128
4 118 119 130 129
4 119 120 131 130
4 121 122 133 132
4 122 123 134 133
4 123 124 135 134
4 124 125 136 135
4 125 126 137 136
4 126 127 138 137
4 127 128 139 138
4 128 129 140 139
4 129 130 141 140
4 130 131 142 141
4 132 133 144 143
4 133 134 145 144
4 134 135 146 145
4 135 136 147 146
4 136 137 148 147
4 137 138 149 148
4 138 139 150 149
4 139 140 151 150
4 140 141 152 151
4 141 142 153 152
4 143 144 155 154
4 144 145 156 155
4 145 146 157 156
4 146 147 158 157
4 147 148 159 158
4 148 149 160 159
4 149 150 161 160
4 150 151 162 161
4 151 152 163 162
4 152 153 164 163
4 154 155 166 165
4 155 156 167 166
4 156 157 168 167
4 157 158 169 168
4 158 159 170 169
4 159 160 171 170
4 160 161 172 171
4 161 162 173 172
4 162 163 174 173
4 163 164 175 174
4 165 166 177 176
4 166 167 178 177
4 167 168 179 178
4 168 169 180 179
4 169 170 181 180
4 170 171 182 181
4 171 172 183 182
4 172 173 184 183
4 173 174 185 184
4 174 175 186 185
4 176 177 188 187
4 177 178 189 188
4 178 179 190 189
4 179 180 191 190
4 180 181 192 191
4 181 182 193 192
4 182 183 194 193
4 183 184 195 194
4 184 185 196 195
4 185 186 197 196
4 187 188 199 198
4 188 189 200 199
4 189 190 201 200
4 190 191 202 201
4 191 192 203 202
4 192 193 204 203
4 193 194 205 204
4 194 195 206 205
4 195 196 207 206
4 196 197 208 207
4 198 199 210 209
4 199 200 211 210
4 200 201 212 211
4 201 202 213 212
4 202 203 214 213
4 203 204 215 214
4 204 205 216 215
4 205 206 217 216
4 206 207 218 217
4 207 208 219 218
4 209 210 221 220
4 210 211 222 221
4 211 212 223 222
4 212 213 224 223
4 213 214 225 224
4 214 215 226 225
4 215 216 227 226
4 216 217 228 227
4 217 218 229 228
4 218 219 230 229
4 220 221 232 231
4 221 222 233 232
4 222 223 234 233
4 223 224 235 234
4 224 225 236 235
4 225 226 237 236
4 226 227 238 237
4 227 228 239 238
4 228 229 240 239
4 229 230 241 240
4 231 232 243 242
4 232 233 244 243
4 233 234 245 244
4 234 235 246 245
4 235 236 247 246
4 236 237 248 247
4 237 238 249 248
4 238 239 250 249
4 239 240 251 250
4 240 241 252 251
4 242 243 254 253
4 243 244 255 254
4 244 245 256 255
4 245 246 257 256
4 246 247 258 257
4 247 248 259 258
4 248 249 260 259
4 249 250 261 260
4 250 251 262 261
4 251 252 263 262
4 253 254 265 264
4 254 255 266 265
4 255 256 267 266
4 256 257 268 267
4 257 258 269 268
4 258 259 270 269
4 259 260 271 270
4 260 261 272 271
4 261 262 273 272
4 262 263 274 273
4 264 265 276 275
4 265 266 277 276
4 266 267 278 277
4 267 268 279 278
4 268 269 280 279
4 269 270 281 280
4 270 271 282 281
4 271 272 283 282
4 272 273 284 283
4 273 274 285 284
4 275 276 287 286
4 276 277 288 287
4 277 278 289 288
4 278 279 290 289
4 279 280 291 290
4 280 281 292 291
4 281 282 293 292
4 282 283 294 293
4 283 284 295 294
4 284 285 296 295
4 286 287 298 297
4 287 288 299 298
4 288 289 300 299
4 289 290 301 300
4 290 291 302 301
4 291 292 303 302
4 292 293 304 303
4 293 294 305 304
4 294 295 306 305
4 295 296 307 306
4 297 298 309 308
4 298 299 310 309
4 299 300 311 310
4 300 301 312 311
4 301 302 313 312
4 302 303 314 313
4 303 304 315 314
4 304 305 316 315
4 305 306 317 316
4 306 307 318 317
4 308 309 320 319
4 309 310 321 320
4 310 311 322 321
4 311 312 323 322
4 312 313 324 323
4 313 314 325 324
4 314 315 326 325
4 315 316 327 326
4 316 317 328 327
4 317 318 329 328
4 319 320 331 330
4 320 321 332 331
4 321 322 333 332
4 322 323 334 333
4 323 324 335 334
4 324 325 336 335
4 325 326 337 336
4 326 327 338 337
4 327 328 339 338
4 328 329 340 339
POINT_DATA 341
VECTORS displacement float
0 0.598112 0
0 0.666643 0
0 0.766714 0
0 1.07374 0
0 2.2337 0
-1.12797 1.32214 0
-1.42945 1.05882 0
-1.73657 0.987219 0
-2.05582 0.967241 0
-2.38724 0.963087 0
-2.72618 0.962921 0
0.228589 0.50975 0
0.111982 0.562892 0
0.0494138 0.609472 0
0.0418408 0.597043 0
-0.343379 0 0
-1.03791 0.522517 0
-1.42384 0.636864 0
-1.73587 0.63535 0
-2.05583 0.626863 0
-2.38629 0.622618 0
-2.72605 0.621829 0
0.405632 0.277912 0
0.189841 0.305642 0
0.0369707 0.290394 0
-0.198741 0.183538 0
-0.491452 0.17287 0
-0.893774 0.110587 0
-1.35526 0.203265 0
-1.71319 0.253282 0
-2.04693 0.268537 0
-2.38103 0.273122 0
-2.7229 0.275263 0
0.51532 -0.0300709 0
0.236164 -0.0180159 0
-0.00758878 -0.0392953 0
-0.263689 -0.071474 0
-0.56687 -0.120955 0
-0.924775 -0.135487 0
-1.30854 -0.13396 0
-1.68298 -0.105707 0
-2.03084 -0.086633 0
-2.37088 -0.0776959 0
-2.71345 -0.073142 0
0.5752 -0.36395 0
0.262888 -0.357671 0
-0.0194758 -0.365277 0
-0.304552 -0.389574 0
-0.612619 -0.416371 0
-0.950103 -0.438768 0
-1.30714 -0.444137 0
-1.66545 -0.439085 0
-2.01607 -0.429139 0
-2.3589 -0.421946 0
-2.69931 -0.417058 0
0.606309 -0.702604 0
0.281906 -0.698314 0
-0.023595 -0.702483 0
-0.32664 -0.715996 0
-0.640727 -0.734933 0
-0.970928 -0.751434 0
-1.3137 -0.761403 0
-1.66123 -0.7635 0
-2.00685 -0.761275 0
-2.34821 -0.75765 0
-2.68464 -0.753816 0
0.623264 -1.04067 0
0.293659 -1.03834 0
-0.0240681 -1.04043 0
-0.338595 -1.04864 0
-0.657861 -1.06077 0
-0.985804 -1.07313 0
-1.3217 -1.08229 0
-1.66188 -1.08711 0
-2.00234 -1.08821 0
-2.34011 -1.08707 0
-2.67265 -1.08458 0
0.63223 -1.37764 0
0.300683 -1.37637 0
-0.0235352 -1.3776 0
-0.344937 -1.38253 0
-0.668132 -1.39037 0
-0.99587 -1.399 0
-1.32839 -1.40636 0
-1.66401 -1.41119 0
-2.00025 -1.41336 0
-2.3346 -1.41334 0
-2.66441 -1.41191 0
0.63672 -1.71306 0
0.304702 -1.71245 0
-0.0228597 -1.71321 0
-0.348276 -1.71621 0
-0.674167 -1.72118 0
-1.00233 -1.72701 0
-1.33322 -1.73236 0
-1.66605 -1.73629 0
-1.9993 -1.73836 0
-2.33111 -1.73873 0
-2.6595 -1.73799 0
0.638711 -2.04702 0
0.306878 -2.04678 0
-0.0223178 -2.04726 0
-0.349998 -2.04908 0
-0.677614 -2.05218 0
-1.00628 -2.05596 0
-1.33638 -2.0596 0
-1.66754 -2.06241 0
-1.99885 -2.06401 0
-2.32908 -2.06442 0
-2.65697 -2.06411 0
0.639366 -2.37972 0
0.307957 -2.37967 0
-0.0219517 -2.37999 0
-0.350847 -2.38107 0
-0.679494 -2.38294 0
-1.00854 -2.38529 0
-1.33826 -2.38762 0
-1.66847 -2.38947 0
-1.99863 -2.39056 0
-2.32801 -2.39089 0
-2.65593 -2.39081 0
0.639355 -2.71142 0
0.308412 -2.71147 0
-0.0217305 -2.71167 0
-0.351226 -2.71229 0
-0.680446 -2.71337 0
-1.00974 -2.71476 0
-1.33928 -2.71615 0
-1.66897 -2.71728 0
-1.99852 -2.71795 0
-2.32753 -2.71819 0
-2.65571 -2.71822 0
0.639061 -3.04237 0
0.308532 -3.04245 0
-0.0216095 -3.04257 0
-0.351358 -3.04291 0
-0.680864 -3.0435 0
-1.0103 -3.04426 0
-1.33976 -3.04504 0
-1.6692 -3.04566 0
-1.99846 -3.04605 0
-2.32739 -3.0462 0
-2.65589 -3.04627 0
0.638687 -3.37277 0
0.308492 -3.37286 0
-0.0215508 -3.37293 0
-0.351367 -3.3731 0
-0.680993 -3.37339 0
-1.0105 -3.37376 0
-1.33993 -3.37415 0
-1.66926 -3.37447 0
-1.99844 -3.37466 0
-2.32741 -3.37476 0
-2.65621 -3.37484 0
0.638334 -3.70281 0
0.308389 -3.70288 0
-0.0215276 -3.70293 0
-0.351323 -3.70299 0
-0.680979 -3.70311 0
-1.01051 -3.70326 0
-1.33993 -3.70342 0
-1.66924 -3.70356 0
-1.99843 -3.70364 0
-2.32751 -3.70369 0
-2.65654 -3.70376 0
0.638043 -4.03261 0
0.308275 -4.03266 0
-0.0215227 -4.03268 0
-0.351262 -4.0327 0
-0.680904 -4.03272 0
-1.01044 -4.03276 0
-1.33987 -4.0328 0
-1.6692 -4.03283 0
-1.99844 -4.03285 0
-2.32762 -4.03288 0
-2.65682 -4.03293 0
0.637823 -4.36225 0
0.308173 -4.36229 0
-0.0215261 -4.3623 0
-0.351203 -4.36229 0
-0.680815 -4.36227 0
-1.01034 -4.36225 0
-1.33978 -4.36223 0
-1.66914 -4.36221 0
-1.99844 -4.3622 0
-2.32772 -4.36221 0
-2.65704 -4.36225 0
0.637665 -4.6918 0
0.308092 -4.69183 0
-0.0215323 -4.69183 0
-0.351153 -4.69181 0
-0.680733 -4.69178 0
-1.01025 -4.69173 0
-1.3397 -4.69169 0
-1.6691 -4.69166 0
-1.99845 -4.69164 0
-2.3278 -4.69164 0
-2.65719 -4.69167 0
0.63756 -5.02131 0
0.308032 -5.02133 0
-0.0215387 -5.02133 0
-0.351115 -5.0213 0
-0.680666 -5.02127 0
-1.01018 -5.02122 0
-1.33964 -5.02118 0
-1.66906 -5.02114 0
-1.99846 -5.02112 0
-2.32786 -5.02112 0
-2.6573 -5.02114 0
0.637492 -5.35079 0
0.307991 -5.3508 0
-0.0215442 -5.3508 0
-0.351087 -5.35078 0
-0.680617 -5.35075 0
-1.01012 -5.35071 0
-1.33959 -5.35067 0
-1.66903 -5.35064 0
-1.99846 -5.35062 0
-2.3279 -5.35061 0
-2.65737 -5.35063 0
0.637451 -5.68026 0
0.307964 -5.68027 0
-0.0215483 -5.68027 0
-0.351068 -5.68025 0
-0.680582 -5.68023 0
-1.01008 -5.68019 0
-1.33955 -5.68016 0
-1.66901 -5.68014 0
-1.99847 -5.68012 0
-2.32792 -5.68012 0
-2.65741 -5.68013 0
0.637428 -6.00973 0
0.307947 -6.00973 0
-0.0215513 -6.00973 0
-0.351056 -6.00972 0
-0.680558 -6.0097 0
-1.01005 -6.00968 0
-1.33953 -6.00966 0
-1.669 -6.00964 0
-1.99847 -6.00963 0
-2.32794 -6.00963 0
-2.65743 -6.00963 0
0.637417 -6.3392 0
0.307937 -6.3392 0
-0.0215533 -6.3392 0
-0.351049 -6.33919 0
-0.680544 -6.33918 0
-1.01003 -6.33917 0
-1.33952 -6.33915 0
-1.66899 -6.33914 0
-1.99847 -6.33913 0
-2.32795 -6.33913 0
-2.65744 -6.33913 0
0.637411 -6.66868 0
0.307932 -6.66868 0
-0.0215546 -6.66868 0
-0.351045 -6.66867 0
-0.680535 -6.66866 0
-1.01002 -6.66865 0
-1.33951 -6.66864 0
-1.66899 -6.66863 0
-1.99847 -6.66863 0
-2.32796 -6.66863 0
-2.65745 -6.66863 0
0.63741 -6.99815 0
0.307929 -6.99815 0
-0.0215554 -6.99815 0
-0.351042 -6.99815 0
-0.68053 -6.99814 0
-1.01002 -6.99814 0
-1.3395 -6.99813 0
-1.66899 -6.99813 0
-1.99847 -6.99812 0
-2.32796 -6.99812 0
-2.65745 -6.99812 0
0.63741 -7.32763 0
0.307928 -7.32763 0
-0.0215558 -7.32763 0
-0.351041 -7.32763 0
-0.680527 -7.32763 0
-1.01001 -7.32762 0
-1.3395 -7.32762 0
-1.66899 -7.32762 0
-1.99847 -7.32762 0
-2.32796 -7.32762 0
-2.65745 -7.32762 0
0.637411 -7.65712 0
0.307928 -7.65712 0
-0.021556 -7.65712 0
-0.351041 -7.65711 0
-0.680526 -7.65711 0
-1.01001 -7.65711 0
-1.3395 -7.65711 0
-1.66899 -7.65711 0
-1.99847 -7.65711 0
-2.32796 -7.65711 0
-2.65745 -7.65711 0
0.637412 -7.9866 0
0.307928 -7.9866 0
-0.0215562 -7.9866 0
-0.351041 -7.9866 0
-0.680526 -7.9866 0
-1.01001 -7.9866 0
-1.3395 -7.9866 0
-1.66899 -7.98659 0
-1.99847 -7.98659 0
-2.32796 -7.98659 0
-2.65745 -7.98659 0
0.637412 -8.31608 0
0.307928 -8.31608 0
-0.0215562 -8.31608 0
-0.351041 -8.31608 0
-0.680526 -8.31608 0
-1.01001 -8.31608 0
-1.3395 -8.31608 0
-1.66899 -8.31608 0
-1.99847 -8.31608 0
-2.32796 -8.31608 0
-2.65745 -8.31608 0
0.637412 -8.64557 0
0.307928 -8.64557 0
-0.0215563 -8.64557 0
-0.351041 -8.64557 0
-0.680526 -8.64557 0
-1.01001 -8.64557 0
-1.3395 -8.64557 0
-1.66899 -8.64557 0
-1.99847 -8.64557 0
-2.32796 -8.64557 0
-2.65745 -8.64557 0
0.637412 -8.97505 0
0.307928 -8.97505 0
-0.0215564 -8.97505 0
-0.351041 -8.97505 0
-0.680526 -8.97505 0
-1.01001 -8.97505 0
-1.3395 -8.97506 0
-1.66899 -8.97506 0
-1.99847 -8.97506 0
-2.32796 -8.97506 0
-2.65745 -8.97506 0
